/*--------------------------------*- C++ -*----------------------------------*\
  =========                 |
  \\      /  F ield         | OpenFOAM: The Open Source CFD Toolbox
   \\    /   O peration     | Website:  https://openfoam.org
    \\  /    A nd           | Version:  12
     \\/     M anipulation  |
\*---------------------------------------------------------------------------*/
FoamFile
{
    format      ascii;
    class       volScalarField;
    location    "0";
    object      Q1;
}
// * * * * * * * * * * * * * * * * * * * * * * * * * * * * * * * * * * * * * //

dimensions      [];

internalField   uniform 0;

boundaryField
{
    front_wall
    {
        type            empty;
    }
    back_wall
    {
        type            fixedValue;
        value           nonuniform List<scalar> 
99
(
4.6579e-310
0
0
0
0
0
0
0
0
0
0
0
0
0
0
0
0
0
0
0
0
0
0
0
0
0
0
0
0
0
0
0
0
0
0
0
0
0
0
0
0
0
0
0
0
0
0
0
0
0
0
0
0
0
0
0
0
0
0
0
0
0
0
0
0
0
0
0
0
0
0
0
0
0
0
0
0
0
0
0
0
0
0
0
0
0
0
0
0
0
0
0
0
0
0
0
0
0
0
)
;
    }
    inflow
    {
        type            fixedValue;
        value           nonuniform List<scalar> 9(0.0112233 0 0 0.0112233 0 0 0.0112233 0 0);
    }
    outflow
    {
        type            fixedValue;
        value           nonuniform List<scalar> 9(0 0.0112233 0 0 0.0112233 0 0 0.0112233 0);
    }
    defaultFaces
    {
        type            fixedValue;
        patchType       empty;
        value           nonuniform List<scalar> 0();
    }
}


// ************************************************************************* //
