# Location 0  : (0.000000e+00 0.000000e+00 0.000000e+00)
# Location 1  : (0.000000e+00 0.000000e+00 2.000000e-01)
# Location 2  : (0.000000e+00 0.000000e+00 5.000000e-01)
# hB          : Interface height above the boundary
# hL          : Interface height above the location
# Location    0                             1                             2                             
# Time        hB             hL             hB             hL             hB             hL             
